# vtk DataFile Version 4.0
vtk output
ASCII
DATASET POLYDATA
POINTS 3799 float
-0.05 0 0 -0.0493525 0 0.00802056 -0.0439108 0 0.00390101 
-0.0498041 0.00712139 0.00442202 -0.0421277 0 -0.00262022 -0.04987 0.00712703 -0.00360356 
-0.0493525 0 -0.00802056 -0.0413382 0 0.0103107 -0.0484444 0.00712366 0.0123748 
-0.0474268 0 0.0158334 -0.0442728 0 0.0232362 -0.0380363 0 0.0175464 
-0.0458398 0.00711565 0.0199677 -0.0335311 0 0.0258559 -0.0399721 0 0.0300371 
-0.0420281 0.00712258 0.0270857 -0.0346362 0 0.0360601 -0.0371458 0.00712306 0.0334693 
-0.0279294 0 0.0326656 -0.0284032 0 0.0411492 -0.031271 0.00713465 0.0390144 
-0.0208871 0 0.0356387 -0.0246187 0.00713402 0.0435192 -0.0214346 0 0.0451725 
-0.0131668 0 0.0391241 -0.0139109 0 0.0480259 -0.0172971 0.0071396 0.0469128 
-0.00523482 0 0.0429163 -0.00602683 0 0.0496354 -0.00956727 0.00713528 0.0490761 
-0.00155118 0.00714059 0.0499759 0.0020133 0 0.0499595 0.00646226 0.00713476 0.0495806 
0.00335332 0 0.0413806 0.0100013 0 0.0489895 0.0143453 0.00713571 0.0478979 
0.0116837 0 0.0397714 0.0177302 0 0.0467508 0.025 0 0.0433013 
0.0196288 0 0.0371803 0.0218172 0.00712621 0.044989 0.0287629 0.00712814 0.0408986 
0.0316223 0 0.0387302 0.0275239 0 0.033921 0.0374255 0 0.0331561 
0.0349327 0.00712137 0.035773 0.0316784 0 0.0264429 0.0402292 0.00712603 0.0296919 
0.0422595 0 0.0267233 0.044461 0.00712085 0.022874 0.0354229 0 0.0186943 
0.045999 0 0.0195983 0.0485471 0 0.0119658 0.0392802 0 0.010943 
0.0475604 0.00712597 0.0154276 0.049416 0.00712091 0.00761964 0.0498379 0 0.00402333 
0.0433432 0 0.0033007 0.0499982 0.007126 -0.000425072 0.0498379 0 -0.00402333 
0.0414 0 -0.00514133 0.0485471 0 -0.0119658 0.0492861 0.00712093 -0.00841896 
0.039031 0 -0.0132121 0.045999 0 -0.0195983 0.0472912 0.00712602 -0.016234 
0.0440847 0.00712096 -0.0235912 0.0422595 0 -0.0267233 0.0360156 0 -0.0210227 
0.0326952 0 -0.0288985 0.0374255 0 -0.0331561 0.039718 0.00712604 -0.0303724 
0.0316223 0 -0.0387303 0.0343469 0.00712099 -0.0363358 0.0251999 0 -0.0330552 
0.0280578 0.00712606 -0.0413855 0.025 0 -0.0433013 0.0176739 0 -0.036938 
0.0210749 0.00712102 -0.0453415 0.0177302 0 -0.0467508 0.00992715 0 -0.0403894 
0.0135105 0.00712609 -0.0481401 0.0100013 0 -0.0489895 0.00563426 0.00712105 -0.0496815 
0.00190531 0 -0.0435729 0.0020133 0 -0.0499595 -0.00242698 0.00712612 -0.0499411 
-0.00602683 0 -0.0496354 -0.0139109 0 -0.0480259 -0.00624124 0 -0.0411353 
-0.0103861 0.00712108 -0.0489094 -0.0181149 0.00712618 -0.0466031 -0.0214346 0 -0.0451725 
-0.0142113 0 -0.0385017 -0.0253382 0.0071212 -0.0431042 -0.0220302 0 -0.0353574 
-0.0284032 0 -0.0411492 -0.0319399 0.00712647 -0.0384688 -0.0298795 0 -0.031739 
-0.0346362 0 -0.0360601 -0.0376849 0.00712177 -0.0328611 -0.0399721 0 -0.0300371 
-0.0335074 0 -0.0243359 -0.0424806 0.00712762 -0.0263705 -0.0442728 0 -0.0232362 
-0.0461555 0.00712416 -0.0192267 -0.0474268 0 -0.0158334 -0.0369185 0 -0.0170565 
-0.0486482 0.00713018 -0.0115478 -0.0398346 0 -0.00976548 0.05 0.3 0 
0.0493525 0.3 0.00802056 0.0439108 0.3 0.00390101 0.0498012 0.292884 0.00445468 
0.049872 0.292877 -0.00357584 0.0493525 0.3 -0.00802056 0.0421277 0.3 -0.00262022 
0.0484345 0.292876 0.0124135 0.0413382 0.3 0.0103107 0.0474268 0.3 0.0158334 
0.0380363 0.3 0.0175464 0.0442728 0.3 0.0232362 0.0458202 0.292875 0.0200128 
0.0335311 0.3 0.0258559 0.0399721 0.3 0.0300371 0.0419989 0.292861 0.027131 
0.0346362 0.3 0.0360601 0.0371086 0.292857 0.0335105 0.0312351 0.292849 0.0390432 
0.0284032 0.3 0.0411492 0.0279294 0.3 0.0326656 0.0208871 0.3 0.0356387 
0.0245867 0.292849 0.0435373 0.0214346 0.3 0.0451725 0.0131668 0.3 0.0391241 
0.0172684 0.292848 0.0469234 0.0139109 0.3 0.0480259 0.00953892 0.292849 0.0490817 
0.00602683 0.3 0.0496354 0.00523482 0.3 0.0429163 -0.0020133 0.3 0.0499595 
0.00152142 0.292851 0.0499768 -0.00649025 0.292852 0.049577 -0.0100013 0.3 0.0489895 
-0.00335332 0.3 0.0413806 -0.0177302 0.3 0.0467508 -0.0116837 0.3 0.0397714 
-0.0143774 0.292852 0.0478883 -0.025 0.3 0.0433013 -0.0196288 0.3 0.0371803 
-0.0218518 0.292851 0.0449722 -0.0275239 0.3 0.033921 -0.0316223 0.3 0.0387302 
-0.0287998 0.292852 0.0408726 -0.0349658 0.292855 0.0357406 -0.0374255 0.3 0.0331561 
-0.0422595 0.3 0.0267233 -0.0316784 0.3 0.0264429 -0.0402561 0.29286 0.0296555 
-0.0354229 0.3 0.0186943 -0.0444792 0.292864 0.0228385 -0.045999 0.3 0.0195983 
-0.0392802 0.3 0.010943 -0.0485471 0.3 0.0119658 -0.0475725 0.292864 0.01539 
-0.0494219 0.292859 0.00758151 -0.0498379 0.3 0.00402333 -0.0433432 0.3 0.0033007 
-0.0499978 0.292855 -0.000471426 -0.0498379 0.3 -0.00402333 -0.0414 0.3 -0.00514133 
-0.0485471 0.3 -0.0119658 -0.0492774 0.29285 -0.00846978 -0.047272 0.29285 -0.0162898 
-0.039031 0.3 -0.0132121 -0.045999 0.3 -0.0195983 -0.0422595 0.3 -0.0267233 
-0.0360156 0.3 -0.0210227 -0.0440573 0.292854 -0.0236421 -0.0326952 0.3 -0.0288985 
-0.0396862 0.292862 -0.030414 -0.0374255 0.3 -0.0331561 -0.0343178 0.292869 -0.0363633 
-0.0316223 0.3 -0.0387303 -0.025 0.3 -0.0433013 -0.0251999 0.3 -0.0330552 
-0.028031 0.292875 -0.0414037 -0.0176739 0.3 -0.036938 -0.0210514 0.292875 -0.0453524 
-0.0177302 0.3 -0.0467508 -0.0100013 0.3 -0.0489895 -0.00992715 0.3 -0.0403894 
-0.0134808 0.29287 -0.0481484 -0.00559853 0.292862 -0.0496856 -0.0020133 0.3 -0.0499595 
-0.00190531 0.3 -0.0435729 0.00247563 0.292856 -0.0499387 0.00602683 0.3 -0.0496354 
0.0104422 0.292851 -0.0488974 0.0139109 0.3 -0.0480259 0.00624124 0.3 -0.0411353 
0.0142113 0.3 -0.0385017 0.0181773 0.292851 -0.0465788 0.0214346 0.3 -0.0451725 
0.0284032 0.3 -0.0411492 0.0220302 0.3 -0.0353574 0.0253971 0.292854 -0.0430696 
0.0346362 0.3 -0.0360601 0.0298795 0.3 -0.031739 0.0319917 0.29286 -0.0384256 
0.0377243 0.292865 -0.0328158 0.0399721 0.3 -0.0300371 0.0442728 0.3 -0.0232362 
0.0335074 0.3 -0.0243359 0.0425093 0.292868 -0.0263241 0.0474268 0.3 -0.0158334 
0.0369185 0.3 -0.0170565 0.0461721 0.292871 -0.0191868 0.0398346 0.3 -0.00976548 
0.0486565 0.292875 -0.0115126 0.05 0.25 0 0.0498713 0.257134 0.00358547 
0.0493525 0.25 0.00802056 0.0498023 0.257125 -0.00444194 0.0493525 0.25 -0.00802056 
0.0562037 0.25 -0.00486994 0.0561328 0.25 0.0041056 0.0484398 0.257127 -0.0123928 
0.0548138 0.25 -0.0138196 0.0474268 0.25 -0.0158334 0.0458336 0.257119 -0.019982 
0.0442728 0.25 -0.0232362 0.0518598 0.25 -0.0223664 0.0420253 0.257121 -0.0270902 
0.0475619 0.25 -0.0302345 0.0399721 0.25 -0.0300371 0.0371521 0.257111 -0.0334622 
0.0421895 0.25 -0.037428 0.0346362 0.25 -0.0360601 0.0312939 0.257109 -0.0389961 
0.0284032 0.25 -0.0411492 0.0357656 0.25 -0.0438007 0.0282322 0.25 -0.0489874 
0.0214346 0.25 -0.0451725 0.0246505 0.257108 -0.0435012 0.0198625 0.25 -0.0528528 
0.0173256 0.257111 -0.0469023 0.0139109 0.25 -0.0480259 0.00958712 0.257114 -0.0490723 
0.00602683 0.25 -0.0496354 0.0109998 0.25 -0.0554247 0.00155848 0.25712 -0.0499757 
-0.0020133 0.25 -0.0499595 0.00189642 0.25 -0.0564884 -0.00646762 0.257125 -0.0495799 
-0.0100013 0.25 -0.0489895 -0.00715305 0.25 -0.0559177 -0.0143588 0.257127 -0.0478939 
-0.0159742 0.25 -0.0540207 -0.0177302 0.25 -0.0467508 -0.021833 0.257125 -0.0449813 
-0.025 0.25 -0.0433013 -0.0246563 0.25 -0.0510026 -0.0287737 0.257119 -0.040891 
-0.0316223 0.25 -0.0387302 -0.0325877 0.25 -0.046377 -0.0392938 0.25 -0.0402812 
-0.0374255 0.25 -0.0331561 -0.0349365 0.257111 -0.0357693 -0.0449981 0.25 -0.0335935 
-0.0422595 0.25 -0.0267233 -0.0402287 0.257106 -0.0296927 -0.0444589 0.257106 -0.022878 
-0.0497999 0.25 -0.0262143 -0.045999 0.25 -0.0195983 -0.0534781 0.25 -0.0180574 
-0.0475607 0.257109 -0.0154267 -0.0485471 0.25 -0.0119658 -0.0556688 0.25 -0.0092352 
-0.0494172 0.257112 -0.0076117 -0.0498379 0.25 -0.00402333 -0.0499981 0.257114 0.000441051 
-0.0498379 0.25 0.00402333 -0.0563674 0.25 -8.03278e-05 -0.0556904 0.25 0.00908941 
-0.0485471 0.25 0.0119658 -0.0492828 0.257114 0.00843808 -0.0534944 0.25 0.0179657 
-0.0472855 0.257113 0.0162506 -0.045999 0.25 0.0195983 -0.0440793 0.257111 0.0236012 
-0.0422595 0.25 0.0267233 -0.049792 0.25 0.0262484 -0.0449268 0.25 0.0338613 
-0.0374255 0.25 0.0331561 -0.0397134 0.257108 0.0303783 -0.0390149 0.25 0.0407342 
-0.0316223 0.25 0.0387303 -0.0343441 0.257107 0.0363385 -0.0280535 0.257106 0.0413884 
-0.0319473 0.25 0.046556 -0.025 0.25 0.0433013 -0.0238966 0.25 0.0511073 
-0.0177302 0.25 0.0467508 -0.0210708 0.257105 0.0453434 -0.0152176 0.25 0.0543646 
-0.0135068 0.257103 0.0481411 -0.0100013 0.25 0.0489895 -0.00563405 0.257102 0.0496816 
-0.00620393 0.25 0.0561414 -0.0020133 0.25 0.0499595 0.00242562 0.257101 0.0499411 
0.00602683 0.25 0.0496354 0.00288247 0.25 0.0562741 0.0103826 0.257101 0.0489101 
0.0139109 0.25 0.0480259 0.0118425 0.25 0.0550203 0.0205543 0.25 0.0525295 
0.0214346 0.25 0.0451725 0.0181154 0.257103 0.0466029 0.0253425 0.257106 0.0431017 
0.0284032 0.25 0.0411492 0.0287393 0.25 0.0486099 0.036056 0.25 0.0432928 
0.0346362 0.25 0.0360601 0.0319511 0.257112 0.0384594 0.0424695 0.25 0.036929 
0.0399721 0.25 0.0300371 0.0376995 0.25712 0.0328443 0.0479486 0.25 0.0297142 
0.0442728 0.25 0.0232362 0.0424955 0.257128 0.0263464 0.052146 0.25 0.0216647 
0.0474268 0.25 0.0158334 0.0461661 0.257135 0.0192014 0.0486539 0.257136 0.0115239 
0.0548111 0.25 0.0130232 0 0.25 -0.1 -0.00397221 0.243091 -0.0999211 
0.00397774 0.243092 -0.0999209 -0.0034123 0.25 -0.09471 0.00323175 0.25 -0.0933074 
-0.00794063 0.25 -0.0996842 0.00794391 0.25 -0.099684 0.0119034 0.243092 -0.099289 
0.0158425 0.25 -0.0987371 0.0106515 0.25 -0.0920735 0.0183248 0.25 -0.0905752 
0.0236314 0.25 -0.0971677 0.0197532 0.243091 -0.0980296 0.03128 0.25 -0.0949819 
0.0274782 0.243092 -0.0961507 0.0259696 0.25 -0.0885011 0.0350302 0.243092 -0.0936637 
0.0387313 0.25 -0.0921948 0.0335235 0.25 -0.0858857 0.0459198 0.25 -0.0888334 
0.0423583 0.24309 -0.0905857 0.0412149 0.25 -0.0827461 0.0498576 0.25 -0.0786459 
0.0494177 0.243091 -0.0869361 0.0528275 0.25 -0.0849074 0.0561677 0.243091 -0.0827357 
0.0594055 0.25 -0.0804424 0.0625657 0.243092 -0.0780098 0.0576764 0.25 -0.0732885 
[...]
POINT_DATA 3799
SCALARS point_scalar_data float
LOOKUP_TABLE lookup_table
0.953477 0.964316 0.954658 1.01225 0.9579 1.01048 0.961032 0.968977 1.02287 
0.973055 1.01842 1.00306 1.0387 0.992724 0.991369 1.04689 1.01567 1.05009 
1.01836 1.01615 1.05716 1.01872 1.06267 1.02106 1.02211 1.01742 1.06476 
1.03402 1.03403 1.06765 1.06866 1.01483 1.06715 1.01524 1.02403 1.07006 
1.02227 1.0228 1.036 1.0315 1.07407 1.07681 1.03635 1.03591 1.02553 
1.07765 1.02284 1.0782 1.03646 1.07773 1.02629 1.02971 1.02882 1.0264 
1.07816 1.08498 1.05283 1.05104 1.08594 1.03765 1.03665 1.03303 1.08157 
1.03246 1.03199 1.07896 1.07955 1.03716 1.0364 1.03636 1.03651 1.07957 
1.0294 1.07758 1.0282 1.07426 1.03262 1.02234 1.067 1.01715 1.00784 
1.05868 1.00543 1.05827 1.02313 1.02486 1.05029 0.98973 0.98307 0.987471 
1.03642 1.0295 0.98411 0.983141 1.01947 0.939636 0.93867 1.02753 1.00258 
1.00414 1.02519 0.941289 0.94419 1.01971 0.989646 1.01937 0.959365 0.98682 
1.01377 0.961039 0.333669 0.334361 0.334179 0.359346 0.358947 0.332477 0.334834 
0.359432 0.333351 0.333637 0.336088 0.337148 0.360687 0.338704 0.338813 0.362807 
0.338951 0.363953 0.364898 0.340165 0.339335 0.340758 0.366261 0.341791 0.343696 
0.367887 0.343784 0.3703 0.34862 0.347272 0.351936 0.372487 0.374289 0.349805 
0.351199 0.350872 0.349716 0.375051 0.352459 0.352246 0.375938 0.349805 0.349848 
0.375779 0.376495 0.353939 0.35501 0.353649 0.377936 0.356117 0.377391 0.355156 
0.346301 0.345847 0.374405 0.37388 0.35288 0.352461 0.371854 0.344321 0.343586 
0.344228 0.369519 0.367946 0.343326 0.342154 0.344464 0.344753 0.366929 0.338867 
0.365714 0.338602 0.364326 0.34128 0.335843 0.340435 0.362784 0.3357 0.361283 
0.33714 0.336045 0.336476 0.36108 0.360243 0.335091 0.335038 0.359002 0.333007 
0.358464 0.333481 0.332992 0.334144 0.358348 0.334341 0.336019 0.336161 0.35893 
0.332767 0.332653 0.358633 0.358578 0.336419 0.332599 0.336884 0.358647 0.334545 
0.332583 0.358414 0.33355 0.358299 0.60577 0.549722 0.605035 0.550078 0.60603 
0.646359 0.645134 0.550175 0.645076 0.604731 0.548244 0.604957 0.645249 0.550406 
0.64535 0.604416 0.547953 0.6443 0.604559 0.549905 0.601265 0.645279 0.644711 
0.603599 0.54953 0.640955 0.54959 0.603916 0.54692 0.604623 0.640955 0.548424 
0.604313 0.642136 0.548602 0.600997 0.639757 0.547188 0.638834 0.602647 0.549054 
0.602214 0.642046 0.547941 0.602175 0.641298 0.640028 0.602024 0.54906 0.63664 
0.601846 0.549969 0.551075 0.638905 0.601283 0.639054 0.550198 0.602052 0.640689 
0.551225 0.604732 0.5511 0.600992 0.640333 0.640341 0.604408 0.554602 0.640079 
0.552465 0.6047 0.554995 0.603985 0.642823 0.639817 0.604803 0.553052 0.642371 
0.608374 0.554367 0.552331 0.642522 0.604729 0.641631 0.606347 0.554662 0.642342 
0.552601 0.60581 0.553373 0.644251 0.606574 0.553112 0.605363 0.643081 0.552335 
0.606009 0.642639 0.645425 0.607756 0.553123 0.554335 0.607789 0.644194 0.642801 
0.606111 0.552566 0.64278 0.609321 0.553447 0.645168 0.607574 0.550641 0.645986 
0.606256 0.551637 0.549891 0.645792 0.711894 0.708824 0.709386 0.710841 0.710813 
0.711379 0.712471 0.710004 0.712972 0.711093 0.7118 0.712992 0.710656 0.713532 
0.711159 0.712229 0.711779 0.714701 0.712846 0.714318 0.711752 0.713503 0.714678 
0.712273 0.715018 0.712763 0.715272 0.713464 0.714828 0.715753 0.716088 0.713623 
0.715224 0.714082 0.717129 0.715149 0.714282 0.716531 0.715478 0.715505 0.716652 
0.714423 0.715859 0.716878 0.714736 0.714935 0.717161 0.71645 0.718084 0.71474 
0.716629 0.714804 0.717397 0.716965 0.714926 0.71748 0.717075 0.717546 0.715044 
0.71681 0.715001 0.71796 0.71492 0.717943 0.716459 0.717182 0.715071 0.716282 
0.714907 0.717468 0.717063 0.715052 0.717446 0.716902 0.715144 0.718056 0.714532 
0.716892 0.716178 0.714538 0.716104 0.716766 0.715797 0.714415 0.716538 0.715385 
0.716217 0.714173 0.71587 0.713888 0.715374 0.713261 0.716512 0.716864 0.715492 
0.712992 0.712837 0.715149 0.715072 0.71248 0.71441 0.715682 0.714638 0.712263 
0.714066 0.715048 0.712075 0.71336 0.714121 0.711725 0.71358 0.713302 0.713836 
0.711546 0.713353 0.711317 0.712691 0.713497 0.710702 0.711895 0.712435 0.710238 
0.710089 0.711489 0.712624 0.709664 0.712568 0.711138 0.710526 0.711877 0.70918 
0.708713 0.71037 0.711062 0.710604 0.708777 0.710013 0.709713 0.708187 0.710285 
0.70755 0.710874 0.707921 0.709686 0.709104 0.708589 0.706869 0.709076 0.707848 
0.706656 0.708955 0.709407 0.706041 0.708487 0.707735 0.705894 0.708244 0.70573 
0.70717 0.707753 0.705419 0.707296 0.707784 0.708698 0.705214 0.705773 0.707489 
0.707159 0.704751 0.706249 0.707479 0.705824 0.70718 0.704401 0.705844 0.704439 
0.707645 0.704068 0.707203 0.705012 0.706452 0.704089 0.705853 0.704192 0.706604 
0.706828 0.704335 0.706707 0.704389 0.706258 0.707523 0.705895 0.706794 0.704342 
0.705875 0.704742 0.706994 0.706416 0.7051 0.707363 0.706563 0.707486 0.70538 
0.705423 0.707911 0.707258 0.708075 0.705919 0.708405 0.708589 0.70609 0.708883 
0.706457 0.708316 0.709306 0.706659 0.708424 0.709822 0.707362 0.708959 0.710759 
0.707731 0.709 0.70784 0.710573 0.709795 0.708487 0.709861 0.457753 0.457753 
0.462227 0.454369 0.455472 0.461204 0.45763 0.45844 0.462773 0.453716 0.455215 
0.462027 0.458266 0.462696 0.458622 0.455319 0.45474 0.463241 0.458429 0.459416 
0.46396 0.455228 0.463875 0.455981 0.459756 0.464803 0.454757 0.459818 0.460138 
0.465667 0.456037 0.464439 0.460769 0.457254 0.465644 0.460983 0.45643 0.457631 
0.46477 0.461188 0.465529 0.461325 0.458023 0.457617 0.465831 0.461543 0.465449 
0.462329 0.459251 0.462118 0.466154 0.458659 0.462345 0.466044 0.458989 0.466836 
0.459398 0.462703 0.462893 0.466979 0.459334 0.466714 0.463343 0.460837 0.460342 
0.46349 0.467577 0.460459 0.463658 0.467602 0.46801 0.464133 0.460828 0.467585 
0.461486 0.464617 0.461415 0.468538 0.464471 0.46894 0.46144 0.464946 0.469256 
0.461818 0.465349 0.462479 0.465742 0.469627 0.46609 0.469926 0.462664 0.470318 
0.466365 0.462979 0.466574 0.470741 0.463286 0.466686 0.470126 0.46381 0.470332 
0.462994 0.466461 0.470471 0.466698 0.46344 0.466689 0.470657 0.463653 0.471257 
0.466857 0.463268 0.470244 0.466875 0.463887 0.471298 0.466955 0.463377 0.467251 
0.47099 0.464233 0.464715 0.467341 0.471036 0.467135 0.47101 0.464207 0.467186 
0.471026 0.464044 0.464346 0.47103 0.46738 0.46712 0.471242 0.46414 0.467131 
0.471474 0.463809 0.467534 0.471638 0.463502 0.464307 0.470917 0.46712 0.463888 
0.47111 0.467032 0.466954 0.47114 0.46331 0.470136 0.466476 0.463571 0.462438 
0.470174 0.465838 0.462239 0.465712 0.470146 0.465367 0.469582 0.462285 0.464825 
0.469249 0.461691 0.46433 0.46877 0.461341 0.468582 0.463997 0.460726 0.463015 
0.467647 0.460086 0.46246 0.466366 0.459741 0.465983 0.459663 0.461927 0.465978 
0.45809 0.461513 0.458671 0.460849 0.465544 0.457315 0.460337 0.464555 0.459834 
0.464195 0.457083 0.46402 0.459968 0.456489 0.459366 0.463054 0.456771 0.463219 
0.45924 0.456077 0.458677 0.463034 0.455153 0.454888 0.458481 0.462758 0.461819 
0.457864 0.455151 0.462466 0.457742 0.454763 0.457773 0.462424 0.454349 0.45737 
0.4624 0.453659 0.461999 0.4539 0.457797 0.457349 0.46134 0.454727 0.453897 
0.457384 0.46175 0.461417 0.457333 0.453773 0.461728 0.457643 0.453738 0.461543 
0.454475 0.766906 0.90211 0.909157 0.660223 0.775209 0.772377 0.659109 0.654762 
0.772672 0.905469 0.906852 0.776995 0.665151 0.900683 0.66104 0.782418 0.658694 
0.775995 0.909978 0.912829 0.780102 0.659921 0.906817 0.782498 0.659175 0.664433 
0.776436 0.913508 0.919777 0.781295 0.658496 0.919107 0.780751 0.658963 0.919837 
0.777872 0.65579 0.925115 0.775729 0.660029 0.916283 0.777623 0.664341 0.651155 
0.923129 0.772415 0.654419 0.785681 0.920173 0.664933 0.781652 0.926355 0.654133 
0.788384 0.924052 0.663608 0.779691 0.914159 0.926053 0.777905 0.662255 0.925426 
0.661414 0.776243 0.658308 0.784835 0.923594 0.921225 0.774213 0.654259 0.926903 
0.653028 0.778743 0.660362 0.784376 0.921272 0.659177 0.773062 0.92047 0.660035 
0.784438 0.925091 0.916583 0.657325 0.777219 0.913372 0.646161 0.776803 0.915523 
0.777095 0.657759 0.912128 0.660312 0.77051 0.657203 0.772582 0.915617 0.909113 
0.657363 0.778332 0.905931 0.771594 0.655861 0.910015 0.77447 0.657169 0.905921 
0.769808 0.654784 0.906843 0.655133 0.77674 0.900332 0.768699 0.661495 0.907718 
0.663495 1.0456 1.05025 1.05797 1.06611 1.07679 1.07058 1.08157 1.08546 
1.08773 1.09053 1.09086 1.09238 1.09486 1.09714 1.09966 1.09931 1.10094 
1.10264 1.10245 1.10481 1.10325 1.10417 1.1019 1.10123 1.09923 1.09547 
1.09206 1.08772 1.07576 1.08212 1.06107 1.06834 1.04989 1.05446 1.04991 
1.05259 1.04859 1.04538 1.04428 0.390232 0.389633 0.391249 0.392142 0.393489 
0.394438 0.397234 0.395676 0.400548 0.398979 0.40214 0.403522 0.405029 0.404149 
0.405726 0.405383 0.404369 0.405122 0.401384 0.402941 0.398387 0.399866 0.397305 
0.395573 0.393154 0.394303 0.391154 0.392048 0.389748 0.39053 0.38896 0.389392 
0.388996 0.388759 0.388755 0.388962 0.388724 0.389259 0.389102 0.504916 0.504671 
0.504983 0.503801 0.502861 0.503088 0.502972 0.503636 0.502528 0.502996 0.503169 
0.50335 0.503406 0.50425 0.504921 0.505378 0.50665 0.50792 0.508685 0.507417 
0.510631 0.509718 0.510934 0.511416 0.511917 0.51111 0.512148 0.511689 0.510205 
0.510955 0.509783 0.509317 0.508713 0.509452 0.507672 0.507553 0.50527 0.505348 
0.504292 0.985953 0.987408 0.987998 0.989979 0.995914 0.998569 0.995588 0.996631 
1.0015 1.00575 1.00502 1.00733 1.01039 1.01177 1.01121 1.01182 1.01089 
1.0145 1.01335 1.01482 1.01484 1.01229 1.0142 1.01056 1.00904 1.01013 
1.00735 1.00373 1.00221 0.999701 0.998191 0.996521 0.989124 0.99125 0.989697 
0.989084 0.982344 0.9814 0.984083 1.06628 1.07021 1.07955 1.07476 1.08734 
1.08362 1.09103 1.08799 1.09122 1.09451 1.0978 1.09621 1.09935 1.09773 
1.10054 1.10303 1.10253 1.10196 1.09875 1.10101 1.09733 1.09985 1.09433 
1.09293 1.08961 1.08522 1.07908 1.07148 1.06777 1.06354 1.05804 1.05699 
1.05652 1.05415 1.05281 1.05207 0.426302 0.427457 0.433335 0.431816 0.425573 
0.424957 0.461865 0.461917 0.43092 0.434525 0.435686 0.436477 0.437039 0.437625 
0.43776 0.437016 0.437441 0.434652 0.435977 0.432173 0.433473 0.429687 0.431041 
0.42755 0.428552 0.426506 0.425654 0.424959 0.424527 0.423713 0.424075 0.423599 
0.423579 0.42365 0.423562 0.423694 0.423689 0.424131 0.424488 0.462259 0.462286 
0.461816 0.461743 0.462468 0.46281 0.462128 0.462402 0.463688 0.463057 0.464105 
0.465201 0.46629 0.467052 0.468961 0.468091 0.469887 0.471029 0.472082 0.472779 
0.472918 0.47336 0.472905 0.47256 0.471268 0.472176 0.469755 0.470517 0.468972 
0.468265 0.466966 0.465967 0.465257 0.464327 0.46322 0.463356 0.429829 1.03451 
1.03181 1.03766 1.04146 1.04558 1.04721 1.04852 1.05256 1.05794 1.05971 
1.06089 1.06362 1.06422 1.06661 1.06683 1.06784 1.06945 1.07038 1.07265 
1.07191 1.07205 1.07247 1.07067 1.06998 1.06863 1.06705 1.06546 1.0624 
1.05733 1.05687 1.05304 1.04901 1.04445 1.04063 1.03822 1.03488 1.03493 
1.03341 1.03277 1.05645 1.06153 1.05284 0.428406 0.461855 0.925201 0.948323 
0.980329 1.00274 1.00819 1.00755 1.01224 1.00061 1.00873 1.03067 1.02684 
1.03676 1.03104 1.00952 1.02008 1.02835 1.0082 1.00634 0.966932 0.920923 
0.849181 1.03738 0.915326 0.924884 0.984596 0.913436 0.964108 1.01183 0.966597 
0.955591 1.00204 1.02569 1.0149 1.03226 1.03704 1.00087 1.02957 0.989566 
0.992787 0.986662 0.967754 0.929605 0.815719 1.01216 1.02655 1.01097 1.00042 
1.01929 0.996918 0.987056 1.00605 0.977776 1.02316 0.843746 1.01788 0.990866 
0.938567 1.03898 0.3384 0.339905 0.342973 0.341748 0.342616 0.343965 0.360333 
0.356446 0.35718 0.366082 0.370769 0.351687 0.355498 0.335422 0.345365 0.340887 
0.343557 0.336362 0.335747 0.336896 0.338459 0.337295 0.338631 0.335814 0.343587 
0.341802 0.343661 0.351927 0.35695 0.3528 0.386043 0.366759 0.412856 0.385924 
0.343016 0.360306 0.352336 0.344889 0.341756 0.339064 0.339261 0.339917 0.339373 
0.400253 0.345474 0.352387 0.350032 0.355491 0.352879 0.354235 0.33722 0.340938 
0.406264 0.339596 0.380288 0.358906 0.346296 0.360186 0.671833 0.671993 0.672171 
0.670064 0.669838 0.670549 0.670921 0.668971 0.667689 0.668506 0.667283 0.66498 
0.664972 0.668626 0.664665 0.661818 0.662011 0.663446 0.66443 0.663495 0.663667 
0.665301 0.664456 0.664343 0.665071 0.668047 0.667782 0.667377 0.669605 0.669702 
0.668481 0.669714 0.67122 0.671427 0.669403 0.668829 0.671227 0.671837 0.670818 
0.706868 0.708014 0.706993 0.707078 0.707159 0.708835 0.709676 0.70966 0.711403 
0.710714 0.710164 0.710455 0.711011 0.711215 0.712044 0.711263 0.71152 0.71123 
0.710611 0.711499 0.711994 0.713856 0.712021 0.710991 0.711257 0.709937 0.709386 
0.710735 0.714138 0.710678 0.709314 0.709551 0.707738 0.707567 0.708894 0.709536 
0.70812 0.706975 0.706319 0.705064 0.70551 0.706654 0.705656 0.704847 0.703867 
0.702984 0.702585 0.703507 0.70462 0.703189 0.702018 0.701619 0.700528 0.700981 
0.701754 0.701234 0.704351 0.702209 0.70151 0.701262 0.701893 0.702483 0.703651 
0.705341 0.704644 0.703765 0.703876 0.704054 0.70556 0.700567 0.698836 0.698951 
0.699599 0.702205 0.702525 0.705521 0.703827 0.705195 0.701662 0.701034 0.701797 
0.705036 0.703112 0.70619 0.704624 0.702337 0.701761 0.703193 0.703152 0.704815 
0.703766 0.70175 0.701865 0.702094 0.702015 0.702394 0.701609 0.69983 0.69888 
0.699287 0.698983 0.697135 0.699571 0.700123 0.697218 0.69739 0.69698 0.697821 
0.694653 0.694979 0.694329 0.694217 0.695127 0.697087 0.69304 0.692443 0.694574 
0.694122 0.69337 0.698973 0.69189 0.692395 0.693335 0.695375 0.696285 0.691045 
0.691481 0.69074 0.695131 0.695326 0.697633 0.701119 0.688084 0.68836 0.690306 
0.688656 0.686039 0.687105 0.687348 0.683882 0.682708 0.683751 0.682672 0.687733 
0.680287 0.679053 0.67983 0.682928 0.681694 0.680154 0.682349 0.683746 0.68172 
0.681952 0.684713 0.686163 0.684434 0.687007 0.688773 0.686552 0.686557 0.689223 
0.690466 0.688123 0.687494 0.689954 0.692227 0.689604 0.688897 0.700248 0.700708 
0.701205 0.701855 0.702206 0.702998 0.703377 0.703586 0.704015 0.704067 0.704696 
0.704852 0.705322 0.705243 0.705997 0.70503 0.70581 0.705774 0.705801 0.705895 
0.70605 0.705858 0.706084 0.706158 0.705708 0.705744 0.705603 0.705371 0.705231 
0.705676 0.705376 0.705272 0.704268 0.704489 0.703749 0.703718 0.702994 0.703148 
0.70281 0.702141 0.701851 0.701702 0.700923 0.700622 0.700736 0.700429 0.699327 
0.699127 0.698161 0.698638 0.697298 0.698168 0.697282 0.697569 0.696638 0.696825 
0.696394 0.696227 0.695926 0.695864 0.695442 0.695551 0.69546 0.695415 0.696055 
0.695795 0.696069 0.69649 0.696434 0.696913 0.697012 0.697047 0.697563 0.698198 
0.698734 0.698778 0.699694 0.699511 0.699826 0.445734 0.446621 0.446367 0.445858 
0.447025 0.444654 0.447321 0.447044 0.448334 0.447916 0.446704 0.447611 0.449047 
0.449257 0.449052 0.449262 0.450434 0.45071 0.450943 0.451148 0.451645 0.451407 
0.452163 0.452329 0.452139 0.452977 0.452739 0.454079 0.453333 0.454189 0.453548 
0.453181 0.453174 0.454833 0.454054 0.453288 0.455155 0.454977 0.455758 0.455026 
0.45536 0.455349 0.455809 0.45541 0.454302 0.453542 0.455655 0.454412 0.454997 
0.454117 0.453879 0.453546 0.453014 0.452944 0.452096 0.452001 0.451724 0.451267 
0.451185 0.450475 0.449046 0.450078 0.447755 0.448753 0.44654 0.447347 0.446922 
0.446272 0.44552 0.446038 0.444733 0.444855 0.444787 0.444647 0.443921 0.445063 
0.445231 0.445025 0.445715 0.68603 0.686437 0.68838 0.687829 0.688842 0.688906 
0.690254 0.689592 0.69081 0.690284 0.690766 0.690431 0.690991 0.691019 0.69146 
0.691131 0.691037 0.691281 0.691341 0.690942 0.691129 0.690852 0.69071 0.690893 
0.69053 0.691277 0.69052 0.689975 0.689524 0.689816 0.689177 0.689856 0.688836 
0.688511 0.688439 0.688134 0.687821 0.687548 0.686904 0.687219 0.685753 0.686037 
0.685141 0.685692 0.684702 0.684572 0.68385 0.683697 0.683363 0.68281 0.682479 
0.683036 0.681816 0.682247 0.681727 0.681319 0.681377 0.681213 0.68108 0.681138 
0.68153 0.681346 0.681559 0.682113 0.681705 0.68145 0.682248 0.681662 0.683171 
0.68391 0.683559 0.684046 0.684204 0.684288 0.684458 0.685043 0.433249 0.432134 
0.430978 0.432222 0.433688 0.433116 0.433825 0.43276 0.433433 0.434866 0.435048 
0.435247 0.436195 0.436795 0.436083 0.437249 0.437038 0.437899 0.437296 0.438353 
0.438467 0.438875 0.438839 0.438654 0.439091 0.439382 0.439488 0.439978 0.440598 
0.440404 0.441139 0.441444 0.44098 0.441909 0.441137 0.441684 0.441566 0.441971 
0.441755 0.442714 0.442152 0.442185 0.44198 0.441396 0.441221 0.440397 0.442077 
0.440514 0.440527 0.440951 0.440237 0.439893 0.439662 0.437891 0.438895 0.437607 
0.438131 0.43609 0.43714 0.436276 0.434811 0.434316 0.433549 0.432591 0.433595 
0.431246 0.432983 0.432296 0.431597 0.431479 0.431017 0.430785 0.431938 0.430764 
0.431752 0.431265 0.430603 0.687137 0.432237 0.686894 0.685547 0.432085 0.667644 
0.667324 0.669447 0.669514 0.668613 0.668114 0.41456 0.414457 0.669058 0.670232 
0.670181 0.670928 0.670685 0.671321 0.670903 0.67105 0.671016 0.670857 0.670663 
0.671038 0.670835 0.670958 0.671142 0.670785 0.670795 0.670742 0.670186 0.670279 
0.670604 0.669981 0.670227 0.669736 0.669176 0.669124 0.669061 0.668111 0.667686 
0.667452 0.667265 0.666699 0.667381 0.666115 0.666019 0.66603 0.665399 0.665146 
0.664838 0.663975 0.664484 0.663809 0.664087 0.663179 0.662585 0.662436 0.662589 
0.66233 0.662055 0.661677 0.661746 0.661604 0.661528 0.661653 0.661752 0.661771 
0.661774 0.661578 0.662363 0.662305 0.662583 0.663085 0.662996 0.663238 0.663579 
0.663925 0.664162 0.416779 0.41655 0.414898 0.416247 0.415995 0.666623 0.414942 
0.414952 0.665718 0.665496 0.416058 0.417129 0.417455 0.417749 0.418469 0.418685 
0.417762 0.419352 0.419929 0.421192 0.420117 0.421204 0.421207 0.42137 0.421953 
0.42255 0.421117 0.423204 0.421741 0.422647 0.423192 0.423601 0.422818 0.423809 
0.423249 0.424009 0.424016 0.424673 0.424983 0.425139 0.424588 0.425354 0.424942 
0.424812 0.424498 0.424158 0.424502 0.424028 0.42384 0.423513 0.423364 0.422774 
0.422946 0.422421 0.42253 0.420912 0.421076 0.420447 0.419934 0.41959 0.420612 
0.41803 0.418974 0.417407 0.417564 0.414691 0.415994 0.41547 0.414662 0.41536 
0.41421 0.414342 0.41339 0.413148 0.412908 0.413451 0.415245 0.414308 0.414441 
0.666089 0.667745 0.664798 0.41333 0.63935 0.639902 0.646238 0.646261 0.398214 
0.39855 0.641217 0.640916 0.646198 0.645514 0.40025 0.399978 0.645632 0.645969 
0.646179 0.645869 0.645729 0.645761 0.395293 0.395089 0.645783 0.645906 0.645488 
0.645645 0.646096 0.645329 0.645358 0.645331 0.645176 0.644488 0.644728 0.644934 
0.644291 0.643918 0.643671 0.643158 0.642697 0.643081 0.641985 0.642215 0.641294 
0.641628 0.640839 0.641171 0.640457 0.640903 0.639996 0.640549 0.639517 0.639614 
0.63896 0.638938 0.638209 0.638172 0.637822 0.638193 0.637398 0.637436 0.637442 
0.637332 0.637497 0.637232 0.637203 0.637258 0.637503 0.637498 0.637914 0.637658 
0.638368 0.637956 0.638739 0.638751 0.639152 0.397612 0.398461 0.395546 0.395485 
0.642069 0.642707 0.64491 0.646071 0.399673 0.640265 0.640651 0.399792 0.400109 
0.400736 0.401465 0.401226 0.40241 0.401984 0.402459 0.402271 0.403007 0.403543 
0.403046 0.404151 0.403273 0.404693 0.403781 0.404126 0.404938 0.404973 0.404562 
0.405814 0.405531 0.405497 0.405409 0.405675 0.405643 0.405736 0.405668 0.405073 
0.405881 0.404737 0.405288 0.404828 0.404378 0.403518 0.404241 0.403109 0.403126 
0.402264 0.402093 0.40206 0.401175 0.400482 0.400814 0.399199 0.399858 0.398361 
0.398246 0.397365 0.397505 0.396239 0.396251 0.394978 0.396029 0.395599 0.394769 
0.394479 0.396504 0.397264 0.396226 0.396695 0.643029 0.643575 0.395254 0.64167 
0.395664 0.394646 0.39616 0.644498 0.643788 0.644285 0.396117 0.395613 0.394724 
0.614228 0.614384 0.379382 0.378909 0.375618 0.375651 0.616587 0.616795 0.611487 
0.611151 0.616119 0.616198 0.610713 0.610324 0.374659 0.375253 0.616562 0.616414 
0.616002 0.615765 0.616161 0.612424 0.612679 0.613906 0.613367 0.614358 0.614867 
0.615491 0.615288 0.614804 0.615336 0.614531 0.614009 0.613719 0.613248 0.613371 
0.612964 0.612747 0.612084 0.61278 0.611874 0.61176 0.611267 0.611066 0.610634 
0.610827 0.610363 0.610596 0.610228 0.609844 0.609653 0.609387 0.609408 0.60911 