# vtk DataFile Version 2.0
TET
ASCII

DATASET UNSTRUCTURED_GRID
POINTS 3086 float
-0.05 0 0 
-0.0482963 0 0.0129409 
-0.0433013 0 0.025 
-0.0353553 0 0.0353553 
-0.025 0 0.0433013 
-0.012941 0 0.0482963 
-1.90646e-09 0 0.05 
0.012941 0 0.0482963 
0.025 0 0.0433013 
0.0353553 0 0.0353553 
0.0433013 0 0.025 
0.0482963 0 0.0129409 
0.05 0 -1.91697e-08 
0.0482963 0 -0.012941 
0.0433013 0 -0.025 
0.0353553 0 -0.0353553 
0.025 0 -0.0433013 
0.012941 0 -0.0482963 
3.18922e-09 0 -0.05 
-0.012941 0 -0.0482963 
-0.025 0 -0.0433013 
-0.0353553 0 -0.0353553 
-0.0433013 0 -0.025 
-0.0482963 0 -0.0129409 
0.05 0.3 0 
0.0482963 0.3 0.0129409 
0.0433013 0.3 0.025 
0.0353553 0.3 0.0353553 
0.025 0.3 0.0433013 
0.012941 0.3 0.0482963 
1.90646e-09 0.3 0.05 
-0.012941 0.3 0.0482963 
-0.025 0.3 0.0433013 
-0.0353553 0.3 0.0353553 
-0.0433013 0.3 0.025 
-0.0482963 0.3 0.0129409 
-0.05 0.3 -1.91697e-08 
-0.0482963 0.3 -0.012941 
-0.0433013 0.3 -0.025 
-0.0353553 0.3 -0.0353553 
-0.025 0.3 -0.0433013 
-0.012941 0.3 -0.0482963 
-3.18922e-09 0.3 -0.05 
0.012941 0.3 -0.0482963 
0.025 0.3 -0.0433013 
0.0353553 0.3 -0.0353553 
0.0433013 0.3 -0.025 
0.0482963 0.3 -0.0129409 
0.05 0.25 0 
0.0482963 0.25 -0.0129409 
0.0433013 0.25 -0.025 
0.0353553 0.25 -0.0353553 
0.025 0.25 -0.0433013 
0.012941 0.25 -0.0482963 
1.90646e-09 0.25 -0.05 
-0.012941 0.25 -0.0482963 
-0.025 0.25 -0.0433013 
-0.0353553 0.25 -0.0353553 
-0.0433013 0.25 -0.025 
-0.0482963 0.25 -0.0129409 
-0.05 0.25 1.91697e-08 
-0.0482963 0.25 0.012941 
-0.0433013 0.25 0.025 
-0.0353553 0.25 0.0353553 
-0.025 0.25 0.0433013 
-0.012941 0.25 0.0482963 
-3.18922e-09 0.25 0.05 
0.012941 0.25 0.0482963 
0.025 0.25 0.0433013 
0.0353553 0.25 0.0353553 
0.0433013 0.25 0.025 
0.0482963 0.25 0.0129409 
0 0.25 -0.1 
0.0130526 0.25 -0.0991445 
0.0258819 0.25 -0.0965926 
0.0382683 0.25 -0.092388 
0.05 0.25 -0.0866025 
0.0608761 0.25 -0.0793353 
0.0707107 0.25 -0.0707107 
0.0793353 0.25 -0.0608761 
0.0866025 0.25 -0.05 
0.092388 0.25 -0.0382683 
0.0965926 0.25 -0.0258819 
0.0991445 0.25 -0.0130526 
0.1 0.25 8.32315e-10 
0.0991445 0.25 0.0130526 
0.0965926 0.25 0.0258819 
0.092388 0.25 0.0382683 
0.0866025 0.25 0.05 
0.0793353 0.25 0.0608761 
0.0707107 0.25 0.0707107 
0.0608761 0.25 0.0793353 
0.05 0.25 0.0866025 
0.0382683 0.25 0.092388 
0.0258819 0.25 0.0965926 
0.0130526 0.25 0.0991445 
2.25833e-09 0.25 0.1 
-0.0130526 0.25 0.0991445 
-0.0258819 0.25 0.0965926 
-0.0382683 0.25 0.092388 
-0.05 0.25 0.0866025 
-0.0608761 0.25 0.0793353 
-0.0707107 0.25 0.0707107 
-0.0793353 0.25 0.0608761 
-0.0866025 0.25 0.05 
-0.092388 0.25 0.0382684 
-0.0965926 0.25 0.0258819 
-0.0991445 0.25 0.0130526 
-0.1 0.25 7.37955e-09 
-0.0991445 0.25 -0.0130526 
-0.0965926 0.25 -0.0258819 
-0.092388 0.25 -0.0382683 
-0.0866025 0.25 -0.05 
-0.0793353 0.25 -0.0608761 
-0.0707107 0.25 -0.0707107 
-0.0608761 0.25 -0.0793353 
-0.05 0.25 -0.0866025 
-0.0382684 0.25 -0.092388 
-0.0258819 0.25 -0.0965926 
-0.0130526 0.25 -0.0991445 
0.1 0.05 0 
0.0991445 0.05 -0.0130526 
0.0965926 0.05 -0.0258819 
0.092388 0.05 -0.0382683 
0.0866025 0.05 -0.05 
0.0793353 0.05 -0.0608761 
0.0707107 0.05 -0.0707107 
0.0608761 0.05 -0.0793353 
0.05 0.05 -0.0866025 
0.0382683 0.05 -0.092388 
0.0258819 0.05 -0.0965926 
0.0130526 0.05 -0.0991445 
-8.32315e-10 0.05 -0.1 
-0.0130526 0.05 -0.0991445 
-0.0258819 0.05 -0.0965926 
-0.0382683 0.05 -0.092388 
-0.05 0.05 -0.0866025 
-0.0608761 0.05 -0.0793353 
-0.0707107 0.05 -0.0707107 
-0.0793353 0.05 -0.0608761 
-0.0866025 0.05 -0.05 
-0.092388 0.05 -0.0382683 
-0.0965926 0.05 -0.0258819 
-0.0991445 0.05 -0.0130526 
-0.1 0.05 -2.25833e-09 
-0.0991445 0.05 0.0130526 
-0.0965926 0.05 0.0258819 
-0.092388 0.05 0.0382683 
-0.0866025 0.05 0.05 
-0.0793353 0.05 0.0608761 
-0.0707107 0.05 0.0707107 
-0.0608761 0.05 0.0793353 
-0.05 0.05 0.0866025 
-0.0382684 0.05 0.092388 
-0.0258819 0.05 0.0965926 
-0.0130526 0.05 0.0991445 
-7.37955e-09 0.05 0.1 
0.0130526 0.05 0.0991445 
0.0258819 0.05 0.0965926 
0.0382683 0.05 0.092388 
0.05 0.05 0.0866025 
0.0608761 0.05 0.0793353 
0.0707107 0.05 0.0707107 
0.0793353 0.05 0.0608761 
0.0866025 0.05 0.05 
0.092388 0.05 0.0382684 
0.0965926 0.05 0.0258819 
0.0991445 0.05 0.0130526 
-0.05 0.05 0 
-0.0482963 0.05 0.0129409 
-0.0433013 0.05 0.025 
-0.0353553 0.05 0.0353553 
-0.025 0.05 0.0433013 
-0.012941 0.05 0.0482963 
-1.90646e-09 0.05 0.05 
0.012941 0.05 0.0482963 
0.025 0.05 0.0433013 
0.0353553 0.05 0.0353553 
0.0433013 0.05 0.025 
0.0482963 0.05 0.0129409 
0.05 0.05 -1.91697e-08 
0.0482963 0.05 -0.012941 
0.0433013 0.05 -0.025 
0.0353553 0.05 -0.0353553 
0.025 0.05 -0.0433013 
0.012941 0.05 -0.0482963 
3.18922e-09 0.05 -0.05 
-0.012941 0.05 -0.0482963 
-0.025 0.05 -0.0433013 
-0.0353553 0.05 -0.0353553 
-0.0433013 0.05 -0.025 
-0.0482963 0.05 -0.0129409 
-0.0495722 0.0124564 0.00652639 
-0.0396696 0.0124765 0.0304355 
-0.0191397 0.0124568 0.0461917 
0.00652311 0.012435 0.0495727 
0.0304374 0.0124434 0.0396682 
0.0461926 0.0124546 0.0191374 
0.0495732 0.0124581 -0.00651931 
0.0396739 0.0124585 -0.03043 
0.0191464 0.0124574 -0.0461889 
-0.00651098 0.0124492 -0.0495743 
-0.0304275 0.012431 -0.0396758 
-0.046192 0.0124272 -0.019139 
-0.0495721 0.012446 -0.00652753 
0.0495726 0.28753 0.00652365 
0.0396663 0.287564 0.0304398 
0.0191263 0.287569 0.0461973 
-0.00653547 0.287552 0.049571 
-0.0304447 0.287544 0.0396626 
-0.0461971 0.287542 0.0191267 
-0.0495712 0.287542 -0.00653414 
-0.0396635 0.287542 -0.0304436 
-0.0191298 0.287541 -0.0461958 
0.00652904 0.287529 -0.0495719 
0.030439 0.287504 -0.0396669 
0.0461932 0.287495 -0.0191361 
0.049572 0.287508 -0.00652852 
0.0495729 0.262509 -0.00652163 
0.0396662 0.262495 -0.0304399 
0.0191307 0.262517 -0.0461954 
-0.00652537 0.262536 -0.0495724 
-0.0304337 0.262542 -0.039671 
-0.0461911 0.262542 -0.0191411 
-0.0495733 0.262542 0.00651836 
-0.0396725 0.262543 0.0304318 
-0.0191406 0.262547 0.0461913 
0.00652086 0.26256 0.049573 
0.0304328 0.262573 0.0396717 
0.0461911 0.26255 0.019141 
0.0495715 0.262527 0.00653222 
-0.0495732 0.0374565 0.00651902 
-0.0461958 0.0374728 0.0191298 
-0.0396689 0.0374765 0.0304364 
-0.0304385 0.0374681 0.0396673 
-0.0191351 0.0374562 0.0461936 
-0.00652738 0.0374455 0.0495721 
0.00652404 0.037438 0.0495725 
0.0191305 0.0374409 0.0461955 
0.030435 0.0374475 0.03967 
0.0396646 0.0374532 0.0304421 
0.0461919 0.0374575 0.0191392 
0.0495713 0.0374595 0.00653315 
0.0495733 0.0374606 -0.00651862 
0.0461976 0.0374608 -0.0191254 
0.0396741 0.037461 -0.0304297 
0.0304478 0.0374606 -0.0396602 
0.0191459 0.0374598 -0.0461891 
0.00653936 0.0374565 -0.0495705 
-0.00651463 0.0374506 -0.0495738 
-0.0191242 0.0374415 -0.0461981 
-0.0304311 0.037432 -0.039673 
-0.0396623 0.0374275 -0.0304451 
-0.0461911 0.0374321 -0.0191411 
-0.0495713 0.0374464 -0.0065338 
-0.0461943 0.0124733 0.0191333 
-0.0304419 0.0124719 0.0396647 
-0.00653091 0.0124513 0.0495716 
0.0191335 0.0124443 0.0461943 
0.0396668 0.0124554 0.0304392 
0.0495717 0.0124619 0.00653076 
0.0461968 0.0124633 -0.0191273 
0.0304461 0.0124631 -0.0396615 
0.00653881 0.0124599 -0.0495706 
-0.0191223 0.0124477 -0.0461989 
-0.0396629 0.0124345 -0.0304442 
0.0461938 0.287543 0.0191345 
0.0304344 0.287564 0.0396705 
0.00651891 0.287553 0.0495732 
-0.0191409 0.287541 0.0461912 
-0.0396718 0.287538 0.0304326 
-0.0495731 0.287537 0.00651966 
-0.0461916 0.287537 -0.0191399 
-0.0304343 0.287537 -0.0396706 
-0.00652366 0.287532 -0.0495726 
0.0191355 0.287515 -0.0461934 
0.0396676 0.287496 -0.0304382 
0.0461944 0.262497 -0.0191331 
0.0304355 0.262504 -0.0396696 
0.00652468 0.262525 -0.0495725 
-0.0191317 0.262535 -0.046195 
-0.0396643 0.262537 -0.0304424 
-0.0495714 0.262537 -0.00653279 
-0.0461965 0.262537 0.019128 
-0.0304431 0.262539 0.0396638 
-0.00653135 0.262546 0.0495716 
0.0191302 0.262561 0.0461956 
0.0396636 0.262556 0.0304433 
-0.0250034 0.0249569 0.0432993 
-0.0482974 0.0249581 0.0129367 
0.0129377 0.0249281 0.0482972 
0.0353526 0.0249402 0.035358 
0.0482946 0.0249504 0.0129474 
0.0482989 0.0249532 -0.0129311 
0.0353651 0.0249534 -0.0353455 
0.012957 0.0249504 -0.048292 
-0.0129249 0.0249372 -0.0483006 
-0.0353465 0.0249187 -0.0353642 
0.0482954 0.275044 0.0129442 
0.0249929 0.27508 0.0433053 
-0.0482944 0.0249262 -0.0129478 
0.0353514 0.275071 0.0353593 
0.0433008 0.274996 -0.0250008 
-9.12464e-06 0.275063 0.05 
-0.0250083 0.275051 0.0432965 
-0.0433061 0.275048 0.0249916 
-0.05 0.275048 -9.61717e-06 
-0.0432969 0.275047 -0.0250075 
-0.0249949 0.275046 -0.0433042 
1.69642e-06 0.275036 -0.05 
0.0249989 0.275012 -0.0433019 
0.0482964 0.275005 -0.0129404 
0.0353546 0.275001 -0.0353561 
-3.15767e-06 0.0249371 0.05 
0.0432988 0.275055 0.0250044 
-0.0433031 0.0249709 0.0249969 
-0.0353578 0.0249708 0.0353529 
-0.05 0.0249487 -4.92087e-06 
0.05 0.27502 1.8738e-06 
-0.0129444 0.0249508 0.0482954 
0.0249977 0.0249413 0.0433026 
0.0432991 0.0249525 0.0250038 
0.05 0.0249578 7.34055e-06 
0.0433066 0.0249588 -0.0249908 
0.0250117 0.024958 -0.0432945 
1.48636e-05 0.0249514 -0.05 
-0.0249889 0.0249354 -0.0433077 
-0.0432972 0.0249281 -0.025007 
0.0129406 0.275022 -0.0482964 
-0.0129382 0.275037 -0.048297 
0.0129343 0.275064 0.0482981 
-0.0129485 0.275049 0.0482943 
-0.0353611 0.275043 0.0353496 
-0.0482984 0.275042 0.0129331 
-0.0482943 0.275042 -0.0129484 
-0.035351 0.275041 -0.0353596 
-0.039117 0 0.00320815 
-0.0328985 0 0.0135329 
-0.0246329 0 0.0265102 
-0.0113724 0 0.0366746 
0.00233253 0 0.0348185 
0.0154086 0 0.0316798 
0.0280871 0 0.026987 
0.0334234 0 0.0136472 
0.0384222 0 0.000110122 
0.0332826 0 -0.0133259 
0.0279971 0 -0.0267401 
0.0154833 0 -0.0315635 
0.00279856 0 -0.035227 
-0.0103866 0 -0.0375037 
-0.0209872 0 -0.0289764 
-0.0301927 0 -0.019323 
-0.0386347 0 -0.00934943 
-0.0270013 0 -0.00225009 
-0.0184158 0 0.011315 
-0.00833661 0 0.0225812 
0.00584197 0 0.0202002 
0.0196198 0 0.0168137 
0.0234106 0 0.000402069 
0.0190703 0 -0.016004 
0.00578343 0 -0.0204095 
-0.00738844 0 -0.0243246 
-0.0174531 0 -0.0145549 
-0.00291282 0 0.00651859 
0.0108462 0 0.0075685 
[...]
POINT_DATA 3086
SCALARS point_scalar_data float 1
LOOKUP_TABLE data_color
1.06227
1.03591
1.03597
0.964857
0.980934
0.947995
0.925075
0.983203
0.964616
1.05587
1.00382
1.01128
1.05622
1.04417
1.05574
1.06775
1.07051
1.06079
1.05615
1.09256
1.08443
1.08124
1.0788
1.07168
0.621981
0.623472
0.622681
0.623143
0.623144
0.622344
0.620336
0.621787
0.621978
0.624298
0.627345
0.624045
0.627609
0.619281
0.621139
0.61841
0.618161
0.615709
0.612457
0.621438
0.610426
0.61673
0.62015
0.622863
0.648266
0.646794
0.644368
0.643256
0.641791
0.640804
0.640175
0.640405
0.641326
0.642285
0.643295
0.645454
0.646624
0.64882
0.649962
0.651625
0.65244
0.653164
0.65399
0.65419
0.653917
0.653082
0.651429
0.649693
0.613749
0.614264
0.614803
0.615092
0.61583
0.617757
0.618726
0.62003
0.621402
0.62374
0.624723
0.62679
0.628287
0.629595
0.631691
0.632431
0.633343
0.635276
0.636034
0.636658
0.637972
0.637366
0.63868
0.638848
0.638356
0.638335
0.637266
0.636541
0.636424
0.6349
0.633039
0.631429
0.630976
0.629606
0.627269
0.626044
0.624467
0.622851
0.620816
0.619249
0.617832
0.617531
0.615579
0.614584
0.614748
0.614227
0.61383
0.613587
0.353762
0.353086
0.353247
0.354146
0.35354
0.354023
0.354522
0.354103
0.353486
0.353265
0.353113
0.352794
0.353005
0.353475
0.353495
0.354147
0.353256
0.353232
0.354169
0.353674
0.352331
0.352658
0.352288
0.351861
0.352339
0.352184
0.351984
0.350624
0.350763
0.350199
0.351259
0.35099
0.349767
0.350708
0.349969
0.349724
0.350705
0.350001
0.350325
0.350748
0.350243
0.350284
0.351436
0.351442
0.351361
0.352036
0.351945
0.352739
0.559945
0.559074
0.553012
0.551845
0.54506
0.542193
0.544988
0.547337
0.555564
0.548068
0.555851
0.556164
0.55778
0.558467
0.563388
0.563642
0.568581
0.559771
0.568524
0.565325
0.564351
0.566999
0.56197
0.558714
0.977712
0.943747
0.909728
0.904212
0.939181
0.948881
0.973853
0.987456
0.995365
0.999278
1.00448
0.99786
0.989848
0.64534
0.646449
0.646148
0.645875
0.645879
0.647194
0.645476
0.642445
0.640645
0.640313
0.63985
0.643383
0.644408
0.659671
0.657598
0.655577
0.654349
0.654693
0.656955
0.658639
0.662088
0.663215
0.663264
0.663572
0.662312
0.661061
0.738755
0.729017
0.722921
0.720503
0.715451
0.708625
0.7069
0.711191
0.710876
0.719246
0.728579
0.732164
0.73467
0.744055
0.741032
0.742179
0.75036
0.751578
0.744508
0.753694
0.751652
0.754511
0.750467
0.740274
0.959538
0.919537
0.901207
0.913038
0.954287
0.963947
0.977149
0.991124
0.993259
1.00736
1.0019
0.646065
0.64625
0.645883
0.645563
0.646817
0.647238
0.643298
0.641686
0.639319
0.640566
0.641483
0.657317
0.655632
0.654277
0.654754
0.656098
0.656691
0.660885
0.662848
0.663334
0.662882
0.662788
0.831821
0.868017
0.820358
0.841117
0.852784
0.868267
0.877296
0.887611
0.894971
0.892618
0.659544
0.660076
0.883083
0.660496
0.655891
0.6598
0.659577
0.659295
0.657837
0.655615
0.653663
0.65341
0.654031
0.657315
0.654582
0.817874
0.659601
0.854824
0.842242
0.877791
0.658653
0.822674
0.832238
0.844609
0.864146
0.873794
0.88415
0.888511
0.896805
0.891426
0.653653
0.653012
0.660659
0.659641
0.659683
0.658322
0.656687
0.654404
1.05405
1.03049
0.962223
0.94693
0.900275
0.957478
1.05161
0.993978
1.05389
1.0441
1.06609
1.06874
1.04755
1.09133
1.08381
1.07639
1.07088
1.06395
0.984671
0.866347
0.861571
0.780479
1.04548
1.01111
1.06284
1.04489
1.05028
1.02368
0.936723
1.04825
1.01398
1.10733
0.62234
0.622235
0.62259
0.622
0.61849
0.620417
0.624311
0.625044
0.626942
0.618985
0.618315
0.616663
0.612323
0.620629
0.609901
0.617758
0.6227
0.617163
0.624526
0.605822
0.606866
0.609988
0.612668
0.613464
0.607983
0.607567
0.610664
0.613442
0.616642
0.620866
0.61696
0.606747
0.636127
0.634231
0.632387
0.628711
0.627946
0.627773
0.623124
0.62743
0.628067
0.629249
0.631518
0.633514
0.636875
0.639112
0.641156
0.642068
0.64634
0.644538
0.645655
0.644185
0.64584
0.643027
0.641659
0.63889
0.614952
0.61584
0.617054
0.617233
0.618827
0.620881
0.623098
0.624678
0.626033
0.627728
0.630125
0.631574
0.633966
0.634318
0.636212
0.637953
0.638716
0.639402
0.640333
0.639988
0.639896
0.638291
0.638291
0.637601
0.63598
0.634531
0.632852
0.631354
0.629236
0.627002
0.625126
0.622911
0.62171
0.620821
0.61932
0.617549
0.616722
0.61646
0.61549
0.614507
0.620013
0.620887
0.621212
0.624292
0.629026
0.630549
0.633855
0.642196
0.635718
0.637523
0.637554
0.641852
0.641202
0.629739
0.640356
0.638556
0.637072
0.632865
0.627056
0.617334
0.624777
0.622595
0.621763
0.62016
0.61988
0.640866
0.633764
0.621102
0.635509
0.627789
0.60946
0.610654
0.612686
0.615393
0.618268
0.62183
0.62467
0.627549
0.630242
0.632502
0.633649
0.634186
0.633845
0.632815
0.630948
0.628445
0.625602
0.622656
0.619127
0.615929
0.612808
0.611334
0.609858
0.609538
0.60917
0.351029
0.351203
0.351108
0.351121
0.351271
0.351994
0.351064
0.350783
0.351026
0.351322
0.350579
0.34969
0.349365
0.349263
0.348454
0.349036
0.34852
0.34958
0.347395
0.348196
0.348584
0.349008
0.350411
0.350728
0.35133
0.610198
0.611943
0.614235
0.616701
0.619873
0.62311
0.626139
0.629328
0.631401
0.632892
0.633875
0.634625
0.633659
0.632079
0.630155
0.62701
0.624104
0.620682
0.617667
0.614441
0.612484
0.610398
0.609583
0.351404
0.351557
0.351939
0.351051
0.351238
0.349165
0.352604
0.351516
0.351119
0.350237
0.348879
0.349517
0.349567
0.34868
0.348528
0.34789
0.347847
0.348591
0.349904
0.348275
0.349254
0.34905
0.349572
0.602419
0.600947
0.597632
0.605806
0.608354
0.611529
0.614527
0.61736
0.618813
0.620811
0.621785
0.62159
0.620678
0.618985
0.616626
0.614073
0.610561
0.607584
0.604606
0.601977
0.599632
0.598025
0.597306
0.34704
0.346205
0.347279
0.347389
0.347595
0.346185
0.346149
0.345991
0.345595
0.34548
0.346011
0.347162
0.345398
0.345163
0.345609
0.344243
0.344766
0.345768
0.345112
0.346095
0.345896
0.345203
0.347488
0.345436
0.347158
0.599942
0.599033
0.347035
0.346727
0.598022
0.603797
0.606828
0.609932
0.612953
0.615892
0.618626
0.619989
0.621307
0.621815
0.621062
0.619721
0.617642
0.615496
0.61243
0.609293
0.606109
0.603549
0.60044
0.598815
0.597441
0.345602
0.347001
0.346078
0.346756
0.346325
0.344461
0.344868
0.346067
0.345797
0.345141
0.344604
0.343194
0.344237
0.345204
0.345441
0.344935
0.34397
0.346721
0.345601
0.597216
0.346272
0.578416
0.342027
0.583658
0.587669
0.590954
0.593946
0.596783
0.599684
0.600474
0.601267
0.601568
0.600754
0.599536
0.597827
0.595046
0.591433
0.588583
0.585638
0.583062
0.580794
0.578848
0.585823
0.341773
0.341894
0.341996
0.59713
0.578985
0.582276
0.343776
0.341887
0.341954
0.341724
0.34251
0.342354
0.341943
0.34311
0.342304
0.343333
0.34236
0.34239
0.341667
0.342248
0.342928
0.34302
0.343999
0.343643
0.343617
0.578548
0.341357
0.580771
0.580053
0.3461
0.342907
0.577817
0.342608
0.592465
0.584899
0.589193
0.595125
0.59805
0.599867
0.60123
0.601592
0.60112
0.600253
0.598035
0.596439
0.593545
0.590322
0.58711
0.58419
0.581633
0.579855
0.342886
0.344412
0.577936
0.341579
0.342015
0.341961
0.34209
0.342659
0.341997
0.342587
0.34306
0.342509
0.342784
0.342371
0.342667
0.342254
0.34167
0.343197
0.578034
0.342526
0.342838
0.343582
0.343699
0.342261
0.577847
0.342508
0.339532
0.3414
0.342579
0.575211
0.567343
0.342574
0.341449
0.570242
0.341987
0.573261
0.575196
0.342454
0.575391
0.574774
0.572701
0.570175
0.567902
0.564962
0.562241
0.559262
0.556564
0.340027
0.560648
0.553535
0.552766
0.341225
0.553964
0.340693
0.341056
0.339037
0.339467
0.339855
0.341019
0.552512
0.554535
0.3394
0.34131
0.341391
0.341236
0.341068
0.342039
0.342694
0.342111
0.342558
0.341439
0.553492
0.338971
0.555658
0.554418
0.575372
0.340044
0.565621
0.572104
0.563888
0.342467
0.339773
0.568829
0.557881
0.552981
0.559415
0.573782
0.57111
0.574651
0.575399
0.575319
0.571451
0.568688
0.566611
0.563765
0.560494
0.55776
0.555711
0.34223
0.34175
0.340997
0.562001
0.341699
0.341998
0.339265
0.342895
0.342856
0.342798
0.556503
0.553021
0.341254
0.340974
0.339681
0.339722
0.339555
0.552647
0.340905
0.342044
0.545193
0.539859
0.53137
0.347168
0.526716
0.545492
0.344059
0.345275
0.345484
0.346388
0.544058
0.545186
0.346651
0.342037
0.539668
0.537345
0.535124
0.532924
0.529094
0.527441
0.540988
0.537705
0.524109
0.526748
0.523871
0.340107
0.529535
0.346701
0.542649
0.522822
0.544749
0.524229
0.34559
0.345111
0.345568
0.345437
0.341577
0.552838
0.346613
0.524924
0.523988
0.341661
0.544924
0.341259
0.535735
0.542491
0.543864
0.533442
0.346441
0.340949
0.522701
0.345991
0.538904
0.346863
0.346517
0.345097
0.344133
0.343144
0.525159
0.527877
0.346925
0.544977
0.538379
0.536313
0.540724
0.534161
0.530984
0.342237
0.345864
0.523516
0.345966
0.344455
0.346928
0.525872
0.523126
0.341726
0.344049
0.346316
0.523948
0.346099
0.342543
0.344946
0.544977
0.343856
0.343684
0.34212
0.343879
0.52875
0.341825
0.342392
0.356299
0.489715
0.356908
0.349588
0.511978
0.349548
0.345093
0.501725
0.511476
0.50609
0.505448
0.3555
0.491127
0.343416
0.503923
0.502484
0.499177
0.500717
0.490667
0.505614
0.344017
0.512486
0.356996
0.349587
0.512984
0.349935
0.356708
0.507193
0.496858
0.349177
0.342621
0.492501
0.501284
0.357137
0.356075
0.491664
0.490535
0.503508
0.510964
0.509778
0.500166
0.355862
0.348663
0.356865
0.506134
0.356419
0.356176
0.355175
0.355293
0.356839
0.356397
0.494373
0.492454
0.355555
0.353879
0.491297
0.350744
0.349613
0.356257
0.351619
0.492815
0.345687
0.50476
0.352816
0.496717
0.355803
0.494447
0.512982
0.352154
0.507632
0.342019
0.523885
0.511202
0.492278
0.357278
0.491442
0.512422
0.35247
0.353415
0.355898
0.489516
0.352103
0.349138
0.494409
0.493901
0.492512
0.52383
0.352116
0.352174
0.454229
0.49557
0.371408
0.473182
0.372762
0.458385
0.512986
0.466848
0.352977
0.351492
0.46631
0.467877
0.360871
0.467433
0.456444
0.373408
0.473054
0.342622
0.455096
0.468972
0.372455
0.363524
0.47983
0.364233
0.372765
0.468977
0.478695
0.372675
0.354467
0.462127
0.365839
0.492995
0.469235
0.372854
0.373213
0.471593
0.372947
0.475287
0.355186
0.352162
0.467051
0.373971
0.372664
0.371827
0.469254
0.477678
0.4606
0.455883
0.372548
0.464386
0.371924
0.457742
0.460252
0.372455
0.456256
0.467955
0.371066
0.470891
0.352628
0.457657
0.365231
0.368571
0.355807
0.350939
0.370462
0.367307
0.457973
0.480168
0.363982
0.480712
0.352106
0.461547
0.350029
0.372227
0.459718
0.363592
0.456608
0.480899
0.480715
0.36942
0.456404
0.366203
0.36812
0.371266
0.460352
0.367802
0.360414
0.456157
0.492603
0.371569
0.475641
0.365647
0.437224
0.418253
0.371576
0.429854
0.366606
0.434928
0.38842
0.434908
0.372067
0.399457
0.43169
0.397138
0.394155
0.430993
0.371883
0.394816
0.392576
0.462971
0.449475
0.369485
0.395091
0.435908
0.42726
0.365106
0.391324
0.493053
0.436042
0.394963
0.368526
0.398736
0.441547
0.392579
0.373463
0.398678
0.451005
0.396142
0.381988
0.39377
0.432551
0.423275
0.393458
0.42766
0.477344
0.391939
0.425008
0.428826
0.398451
0.431102
0.424133
0.437641
0.399205
0.367813
0.391848
0.38102
0.364373
0.389948
0.429377
0.423265
0.384113
0.368221
0.392371
0.361967
0.447526
0.448638
0.420752
0.392901
0.38846
0.431849
0.421768
0.432534
0.392985
0.448861
0.392321
0.36763
0.397931
0.382886
0.465315
0.381781
0.442499
0.390981
0.375516
0.437398
0.458551
0.430362
0.417873
0.461204
0.417235
0.444393
0.385641
0.391276
0.424382
0.445461
0.384269
0.413666
0.40208
0.41208
0.387038
0.393097
0.415267
0.391714
0.418749
0.405108
0.447286
0.416291
0.416074
0.419011
0.393018
0.460286
0.421666
0.417859
0.412119
0.399471
0.422882
0.409089
0.419691
0.386837
0.432708
0.421227
0.387675
0.406263
0.417121
0.398996
0.408903
0.393441
0.392665
0.414633
0.380823
0.426678
0.377034
0.40443
0.451157
0.42258
0.396722
0.399316
0.430799
0.434833
0.426865
0.406379
0.397924
0.356963
0.360411
0.360498
0.360664
0.360219
0.359738
0.360459
0.360448
0.360372
0.359651
0.358324
0.358844
0.35822
0.35781
0.357253
0.356639
0.355781
0.356436
0.356507
0.35697
0.356735
0.357151
0.35797
0.361378
0.359555
0.429789
0.428215
0.427502
0.425396
0.429347
0.422145
0.428387
0.42428
0.424707
0.424214
0.428626
0.439582
0.429689
0.437061
0.433292
0.433271
0.435221
0.433517
0.436026
0.431209
0.43475
0.436151
0.424865
0.429637
0.359249
0.360666
0.360037
0.360349
0.360006
0.360974
0.360565
0.359478
0.360491
0.35954
0.3584
0.358623
0.35757
0.357435
0.356963
0.356505
0.356574
0.356061
0.35681
0.35661
0.356456
0.357848
0.359721
0.384541
0.384609
0.383932
0.383655
0.385667
0.384909
0.38382
0.383051
0.382331
0.381134
0.381496
0.381026
0.380769
0.37866
0.378729
0.379095
0.381269
0.380886
0.379164
0.379855
0.379999
0.386689
0.383647
0.380824
0.37472
0.385421
0.37961
0.378882
0.378284
0.380719
0.380448
0.378076
0.379941
0.379432
0.375204
0.376981
0.37668
0.374537
0.376021
0.374975
0.373414
0.375361
0.376506
0.374152
0.37565
0.374352
0.377283
0.362903
0.494231
0.697232
0.410583
0.404524
0.374206
0.424057
0.446603
0.362195
0.42401
0.380362
0.889166
0.827803
0.777993
0.849143
0.494211
0.357057
0.41042
0.39856
0.371548
0.897397
0.489587
0.410164
0.397827
0.44109
0.411478
0.39909
0.396696
0.366928
0.347417
0.362342
0.466333
0.668327
0.357734
0.363082
0.369283
0.380055
0.41803
0.480291
0.494268
0.404352
0.427196
0.370046
0.392854
0.688882
0.480353
0.372157
0.394424
0.372449
0.36877
0.41691
0.517736
0.450764
0.382912
0.447876
0.40226
0.513922
0.42466
0.398953
0.464926
0.356568
0.35042
0.391648
0.463568
0.521216
0.399774
0.353066
0.555955
0.531257
0.5376
0.653343
0.660154
0.561348
0.563946
0.657679
0.659812
0.54227
0.655615
0.612656
0.573369
0.620218
0.611253
0.630067
0.636294
0.578139
0.633047
0.617015
0.634844
0.623783
0.595818
0.630875
0.649315
0.622592
0.630573
0.624614
0.590341
0.548324
0.615696
0.6135
0.582651
0.660811
0.626912
0.60358
0.625209
0.586858
0.60641
0.626811
0.616448
0.620388
0.571466
0.625375
0.659262
0.612854
0.602009
0.611507
0.6193
0.565765
0.609988
0.571986
0.618585
0.485967
0.444532
0.629995
0.638951
0.586772
0.49189
0.584354
0.638202
0.585438
0.506494
0.610341
0.645662
0.636941
0.581222
0.498405
0.463144
0.57246
0.637454
0.516717
0.649165
0.633056
0.62998
0.587486
0.49195
0.562419
0.639203
0.59115
0.599794
0.525015
0.602293
0.580908
0.567577
0.602373
0.485356
0.571512
0.626169
0.526258
0.456485
0.593791
0.641021
0.625585
0.571935
0.521099
0.623898
0.479919
0.413877
0.526994
0.560257
0.52192
0.590124
0.628775
0.647665
0.649131
0.532963
0.595454
0.600604
0.511892
0.424198
0.570216
0.574162
0.622742
0.517432
0.590788
0.628553
0.522357
0.51379
0.578302
0.623945
0.515997
0.62869
0.633789
0.529512
0.581075
0.632725
0.529661
0.4424
0.63392
0.661898
0.603052
0.607098
0.511528
0.616068
0.648894
0.522877
0.576323
0.636082
0.512951
0.581178
0.592007
0.631668
0.531444
0.576885
0.639957
0.569059
0.534525
0.448186
0.525613
0.442574
0.641814
0.530324
0.641172
0.642605
0.594504
0.490683
0.63882
0.499023
0.420958
0.500884
0.637789
0.637841
0.501808
0.645131
0.531671
0.62585
0.608781
0.363458
0.347362
0.352379
0.383576
0.357296
0.384144
0.373706
0.362029
0.397495
0.353689
0.355023
0.385137
0.359006
0.355339
0.380087
0.384222
0.360935
0.395274
0.372635
0.343753
0.368515
0.357867
0.344606
0.360173
0.482822
0.357759
0.381892
0.385512
0.36591
0.359026
0.352113
0.359218
0.38082
0.363049
0.366989
0.380148
0.359213
0.36056
0.39118
0.354654
0.366899
0.364099
0.613066
0.53218
0.512585
0.416645
0.41295
0.387363
0.403607
0.403989
0.364947
0.365448
0.374933
0.400677
0.383786
0.489363
0.375241
0.366387
0.372919
0.466385
0.458162
0.462213
0.542479
0.385129
0.41734
0.389221
0.478597
0.385188
0.444536
0.454678
0.367271
0.362947
0.42051
0.385256
0.461467
0.572543
0.433568
0.392458
0.400257
0.372626
0.510997
0.506315
0.381472
0.369573
0.457914
0.438632
0.362926
0.384895
0.363923
0.465332
0.533073
0.651963
0.748026
0.396529
0.451165
0.366305
0.506159
0.520608
0.38421
0.465899
0.641423
0.64265
0.638743
0.634913
0.654666
0.65892
0.66106
0.644089
0.636692
0.644808
0.656554
0.660587
0.663146
0.645404
0.658488
0.661166
0.922369
0.926646
0.660943
0.653949
0.653159
0.652721
0.656671
0.897808
0.655668
0.660058
0.809881
0.97469
0.939972
0.8068
0.865199
0.858835
0.909279
0.864916
0.89133
0.904453
0.951756
0.994311
0.953073
0.982536
0.977035
0.997017
0.977956
0.954262
0.941936
0.972766
0.647447
0.646665
0.64329
0.643918
0.642615
0.63899
0.636899
0.631557
0.637847
0.639267
0.637242
0.634391
0.640307
0.639709
0.644264
0.627643
0.622118
0.623556
0.625297
0.623223
0.634076
0.637546
0.610603
0.615078
0.61111
0.620143
0.619781
0.625977
0.628826
0.628023
0.63159
0.632441
0.632143
0.633214
0.620511
0.629625
0.62753
0.624914
0.623257
0.619868
0.617517
0.610371
0.605155
0.610722
0.609139
0.6094
0.622728
0.625785
0.619268
0.622995
0.622262
0.623993
0.629776
0.637028
0.63388
0.631255
0.624307
0.60943
0.634682
0.633312
0.629479
0.634448
0.630975
0.6199
0.613843
0.619191
0.612884
0.62745
0.612797
0.622909
0.618789
0.628234
0.6088
0.612063
0.630653
0.611247
0.626102
0.614367
0.627978
0.61322
0.617233
0.613102
0.606834
0.635005
0.613405
0.614695
0.416984
0.447721
0.437769
0.355896
0.382291
0.401742
0.351654
0.354935
0.384938
0.352386
0.357941
0.378418
0.368731
0.356121
0.355616
0.390693
0.352565
0.352714
0.35514
0.617209
0.589117
0.344143
0.365826
0.349211
0.599689
0.600345
0.607734
0.606948
0.605546
0.604907
0.612147
0.61049
0.608386
0.602426
0.600702
0.593977
0.605745
0.596943
0.350244
0.351777
0.347736
0.353519
0.348665
0.347144
0.351136
0.349773
0.348274
0.346544
0.348255
0.345907
0.349461
0.349253
0.349791
0.349551
0.346701
0.595541
0.58282
0.349971
0.593698
0.350546
0.592305
0.348985
0.347437
0.348072
0.5909
0.351315
0.393881
0.378065
0.387386
0.396175
0.389683
0.393174
0.474996
0.582245
0.44376
0.387766
0.345088
0.460243
0.586227
0.590286
0.469034
0.421075
0.579646
0.560306
0.452857
0.393342
0.466545
0.442116
0.383295
0.434743
0.343737
0.392235
0.391285
0.344759
0.342143
0.344718
0.345554
0.343554
0.581486
0.57534
0.466024
0.356888
0.345611
0.390898
0.454919
0.358535
0.56586
0.567494
0.343615
0.357363
0.344976
0.400263
0.354536
0.577565
0.548729
0.558812
0.564446
0.555732
0.453553
0.533388
0.346114
0.534107
0.345625
0.564981
0.575241
0.346137
0.344987
0.558296
0.46109
0.555976
0.548893
0.540823
0.54169
0.538958
0.552929
0.565912
0.530764
0.573704
0.343085
0.342362
0.354299
0.400301
0.344826
0.573575
0.555209
0.558876
0.559372
0.345282
0.355279
0.401879
0.378635
0.554928
0.527102
0.455056
0.445587
0.34559
0.34452
0.510498
0.539699
0.344937
0.344491
0.353994
0.53816
0.344439
0.342775
0.554755
0.555486
0.439122
0.344943
0.345074
0.343538
0.462113
0.521334
0.351804
0.527595
0.396002
0.35114
0.349719
0.5017
0.524469
0.344554
0.351694
0.393175
0.521678
0.39237
0.342595
0.356417
0.398246
0.39861
0.345862
0.548331
0.509599
0.464762
0.348889
0.355221
0.401393
0.34822
0.351624
0.49446
0.377135
0.399867
0.487607
0.499459
0.395247
0.361817
0.465007
0.46157
0.495753
0.368646
0.365891
0.34768
0.4071
0.488956
0.492099
0.449709
0.452288
0.357319
0.351814
0.346371
0.503388
0.363192
0.365178
0.446738
0.457412
0.365173
0.365751
0.356297
0.478146
0.358988
0.354143
0.491398
0.486632
0.429009
0.478175
0.471257
0.365228
0.357732
0.495328
0.53888
0.528144
0.48136
0.456668
0.454976
0.491458
0.370562
0.507122
0.453129
0.453634
0.357281
0.370435
0.508764
0.373543
0.384664
0.369574
0.39135
0.477411
0.435108
0.473344
0.381401
0.501088
0.379604
0.466624
0.468045
0.49032
0.474461
0.387978
0.393229
0.479685
0.410036
0.412041
0.401738
0.395642
0.427061
0.413882
0.409342
0.422577
0.372747
0.354203
0.366385
0.41204
0.40399
0.41179
0.416185
0.385954
0.422477
0.381095
0.369272
0.379291
0.437955
0.425247
0.396956
0.412825
0.379111
0.380167
0.393864
0.445763
0.401735
0.427765
0.443086
0.439091
0.447984
0.432241
0.40808
0.442636
0.415047
0.406274
0.435179
0.431664
0.453174
0.442922
0.457807
0.451337
0.430535
0.357543
0.356852
0.358124
0.356707
0.354822
0.356938
0.392605
0.398291
0.400671
0.419916
0.43573
0.394194
0.422687
0.383051
0.360428
0.357896
0.357871
0.365257
0.356673
0.359268
0.355721
0.361678
0.38071
0.353907
0.359773
0.356821
0.359221
0.35935
0.375146
0.378485
0.384602
0.390703
0.371824
0.399707
0.397202
0.371096
0.393853
0.394503
0.387599
0.387931
0.368949
0.369813
0.398554
0.378359
0.398112
0.392072
0.378506
0.39797
0.357617
0.360858
0.374351
0.365851
0.369971
0.399056
0.352263
0.382752
0.376723
0.402079
0.395216
0.375106
0.376155
0.358316